# Field minima and maxima
# Time                  	field                   	min                     	location(min)           	max                     	location(max)           
8000                    	U                       	(3.0994192999868209e+00 7.4724157839731829e-03 -1.9913168336721919e-04)	(1.0093750000000002e+03 5.0000000000000000e+00 8.2165577877648929e-02)	(1.4381921022201110e+01 2.1531491311372181e-02 2.6895009416310511e+00)	(1.0093750000000000e+03 5.0000000000000018e+00 2.8854058582576101e+01)
