# Field minima and maxima
# Time                  	field                   	min                     	location(min)           	max                     	location(max)           
100                     	U                       	(0.0000000000000000e+00 0.0000000000000000e+00 0.0000000000000000e+00)	(3.1250000000000000e+00 5.0000000000000000e+00 0.0000000000000000e+00)	(1.3276294628483290e+01 3.9808587052205831e-04 3.7395770067738838e+00)	(1.0093750000000001e+03 4.9999999999999991e+00 2.0198858248851195e+01)
