# Field minima and maxima
# Time                  	field                   	min                     	location(min)           	max                     	location(max)           
4000                    	U                       	(4.6105789366520540e+00 2.8845575173999821e-03 -2.7629705924118807e-04)	(3.1250000000000004e+00 5.0000000000000000e+00 8.2165577877648902e-02)	(1.6955452355909721e+01 4.5247805011166872e-03 3.1931249057346869e+00)	(1.0218749999999999e+03 5.0000000000000000e+00 4.0652891273108516e+01)
