# Field minima and maxima
# Time                  	field                   	min                     	location(min)           	max                     	location(max)           
10000                   	U                       	(2.9755875003356080e+00 8.8342806018484946e-03 -1.2231662091216031e-04)	(1.0093750000000002e+03 5.0000000000000000e+00 8.2165577877648929e-02)	(1.4104828045534680e+01 2.8662447737986801e-02 2.5586585215254050e+00)	(1.0156250000000000e+03 5.0000000000000000e+00 3.0324241097885285e+01)
