# Field minima and maxima
# Time                  	field                   	min                     	location(min)           	max                     	location(max)           
10000                   	mag(U)                  	0.0000000000000000e+00	(3.1250000000000000e+00 5.0000000000000000e+00 0.0000000000000000e+00)	1.8355942939646269e+01	(3.7093749999999995e+03 4.9999999999999947e+00 1.8718269193246212e+02)
