# Field minima and maxima
# Time                  	field                   	min                     	location(min)           	max                     	location(max)           
8000                    	mag(U)                  	0.0000000000000000e+00	(3.1250000000000000e+00 5.0000000000000000e+00 0.0000000000000000e+00)	1.8355483206627788e+01	(3.6281249999999995e+03 5.0000000000000044e+00 1.7892091681383030e+02)
