# Field minima and maxima
# Time                  	field                   	min                     	location(min)           	max                     	location(max)           
4000                    	mag(U)                  	0.0000000000000000e+00	(3.1250000000000000e+00 5.0000000000000000e+00 0.0000000000000000e+00)	1.9432184399166122e+01	(1.2718749999999998e+03 4.9999999999999991e+00 6.8430024873874686e+01)
