# Field minima and maxima
# Time                  	field                   	min                     	location(min)           	max                     	location(max)           
100                     	mag(U)                  	0.0000000000000000e+00	(3.1250000000000000e+00 5.0000000000000000e+00 0.0000000000000000e+00)	1.9116787085364567e+01	(1.0468750000000000e+03 4.9999999999999982e+00 2.8854058582576105e+01)
